# 4-Makefile

# Setting variables
CC = gcc
SRC = main.c school.c
NAME = school
OBJ = main.o school.o
RM = rm -f
CFLAGS = -Wall -Werror -Wextra -pedantic

# Rule all: Build the holberton executable file
all: $(OBJ)
	$(CC) $(CFLAGS) $(OBJ) -o $(NAME)

# This is declare to making this rules a prerequisite of the special target
.PHONY: clean oclean fclean re

# Deletes all Emacs and Vim temporary files along with the executable
clean:
	$(RM) *~ $(NAME)

# Deletes the object files
oclean:
	$(RM) $(OBJ)

# Deletes all Emacs and Vim temporary files, the executable and the object files
fclean: 
	$(RM) *~ $(NAME)
	$(RM) $(OBJ)

# Forces recompilation of all source files
re: oclean all
